VARIABLES = "r", "Temperature", "U", "Uth",, "x_HE", "x_AR", "x_N2", "x_O2", "x_H2", "x_H2O", "x_H2O2", "x_CO", "x_CO2", "x_CH2O", "x_CH4", "x_CH3OH", "x_CH3OOH", "x_C2H2", "x_CH2CO", "x_C2H2O2", "x_C2H4", "x_C2H4O", "x_CH3CHO", "x_C2H4O2", "x_C2-OQOOH", "x_C2H6", "x_C2H5OH", "x_C2H5OOH", "x_C3H2", "x_AC3H4", "x_PC3H4", "x_C2H3CHO", "x_C3H6", "x_C2H5CHO", "x_C3H6O", "x_CH3COCH3", "x_C3H8", "x_C4H2", "x_C4H4", "x_C4H6", "x_C3H5CHO", "x_IC3H5CHO", "x_IC4H8", "x_NC4H8", "x_C4H8O", "x_C3H7CHO", "x_IC3H7CHO", "x_IC4H10", "x_NC4H10", "x_CYC5H4O", "x_CYC5H6", "x_C5H8", "x_CYC5H8", "x_NC5H10", "x_C4H9CHO", "x_NEOC5H12", "x_NC5H12", "x_C6H2", "x_BENZYNE", "x_C6H4", "x_C6H4O2", "x_LC6H6", "x_C6H6", "x_C6H5OH", "x_CYC6H8", "x_MCPTD", "x_CYC6H10", "x_CYC6H12", "x_NC6H12", "x_C6H5CHO", "x_C7H8", "x_C6H5OCH3", "x_C6H5CH2OH", "x_CRESOL", "x_CH3CH3-C5H6", "x_NC7H14", "x_MCYC6", "x_NC7H16", "x_C8H2", "x_C6H5C2H", "x_BZFUR", "x_C6H5C2H3", "x_C6H5C2H5", "x_XYLENE", "x_IC8H16", "x_IC8H18", "x_INDENE", "x_NPBENZ", "x_TMBENZ", "x_C10H8", "x_C10H7OH", "x_C10H10", "x_TETRALIN", "x_DCYC5", "x_ODECAL", "x_DECALIN", "x_NC10H20", "x_NC10MOOH", "x_NC10H22", "x_C10H7CHO", "x_C10H7CH3", "x_CH3C10H6OH", "x_C12H8", "x_DIBZFUR", "x_BIPHENYL", "x_DIFENET", "x_NC12H26", "x_FLUORENE", "x_C6H5CH2C6H5", "x_C14H10", "x_C6H5C2H4C6H5", "x_C16H10", "x_NC16H34", "x_IC16H34", "x_BIN1B", "x_BIN1A", "x_O", "x_H", "x_OH", "x_HO2", "x_C", "x_CSOLID", "x_CH", "x_HCO", "x_CH2", "x_CH2S", "x_CH3", "x_CH3O", "x_CH2OH", "x_CH3OO", "x_C2H", "x_HCCO", "x_C2H3", "x_CH2CHO", "x_CH3CO", "x_C2H5", "x_C2H4OH", "x_CH3CHOH", "x_C2-QOOH", "x_C2H5OO", "x_C2-OOQOOH", "x_C3H3", "x_CHCHCH3", "x_CH2CCH3", "x_CH2CHCH2", "x_RALD3B", "x_RALD3G", "x_CH3COCH2", "x_IC3H7", "x_NC3H7", "x_C4H3", "x_C4H5", "x_CH2C3H5", "x_IC4H7", "x_SC4H7", "x_IC4H9T", "x_NC4H9S", "x_IC4H9P", "x_NC4H9P", "x_CYC5H5", "x_C5H5O", "x_C5H7", "x_NC5H9-3", "x_ERC4H8CHO", "x_NC5H11", "x_NEOC5H11", "x_C6H3", "x_LC6H5", "x_C6H5", "x_C6H5O", "x_CYC6H9", "x_CYC6H11", "x_C6H4CH3", "x_C7H7", "x_RCRESOLO", "x_RCRESOLC", "x_RMCYC6", "x_NC7H13", "x_NC7H15", "x_C6H4C2H", "x_C6H5C2H2", "x_RXYLENE", "x_C8H9", "x_IC8H17", "x_INDENYL", "x_RC9H11", "x_C10H7", "x_C10H7O", "x_RTETRALIN", "x_RTETRAOO", "x_RDECALIN", "x_RODECA", "x_NC10H19", "x_NC10H21", "x_C10H7CH2", "x_C10H6CH3", "x_CH3C10H6O", "x_C12H7", "x_RBIPHENYL", "x_NC12H25", "x_C14H9", "x_C16H9", "x_IC16H33", "x_NC16H33"
ZONE I=250, DATAPACKING=BLOCK
2.500000e-02 2.550000e-02 2.601062e-02 2.653210e-02 2.706466e-02 2.760853e-02 2.816396e-02 2.873120e-02 2.931049e-02 2.990208e-02 3.050625e-02 3.112326e-02 3.175338e-02 3.239689e-02 3.305407e-02 3.372522e-02 3.441063e-02 3.511061e-02 3.582546e-02 3.655550e-02 3.730105e-02 3.806245e-02 3.884003e-02 3.963413e-02 4.044510e-02 4.127331e-02 4.211912e-02 4.298290e-02 4.386504e-02 4.476592e-02 4.568595e-02 4.661161e-02 4.754294e-02 4.847997e-02 4.942275e-02 5.037130e-02 5.132566e-02 5.228586e-02 5.325195e-02 5.422395e-02 5.520190e-02 5.618585e-02 5.717582e-02 5.817186e-02 5.917400e-02 6.018227e-02 6.119672e-02 6.221739e-02 6.324430e-02 6.427751e-02 6.531704e-02 6.636295e-02 6.741525e-02 6.847401e-02 6.953924e-02 7.061101e-02 7.168933e-02 7.277427e-02 7.386584e-02 7.496411e-02 7.606910e-02 7.718085e-02 7.829942e-02 7.942484e-02 8.055715e-02 8.169640e-02 8.284262e-02 8.399587e-02 8.515618e-02 8.632359e-02 8.749816e-02 8.867992e-02 8.986892e-02 9.106520e-02 9.226881e-02 9.347979e-02 9.469819e-02 9.592405e-02 9.715742e-02 9.839834e-02 9.964687e-02 1.009030e-01 1.021669e-01 1.034385e-01 1.047179e-01 1.060051e-01 1.073003e-01 1.086033e-01 1.099143e-01 1.112334e-01 1.125605e-01 1.138958e-01 1.152392e-01 1.165909e-01 1.179509e-01 1.193192e-01 1.206958e-01 1.220809e-01 1.234745e-01 1.248766e-01 1.262873e-01 1.277067e-01 1.291347e-01 1.305715e-01 1.320171e-01 1.334715e-01 1.349349e-01 1.364072e-01 1.378885e-01 1.393789e-01 1.408784e-01 1.423871e-01 1.439051e-01 1.454324e-01 1.469690e-01 1.485150e-01 1.500705e-01 1.516355e-01 1.532101e-01 1.547943e-01 1.563883e-01 1.579920e-01 1.596055e-01 1.612290e-01 1.628623e-01 1.645057e-01 1.661591e-01 1.678227e-01 1.694964e-01 1.711804e-01 1.728747e-01 1.745794e-01 1.762946e-01 1.780202e-01 1.797564e-01 1.815032e-01 1.832608e-01 1.850291e-01 1.868082e-01 1.885983e-01 1.903993e-01 1.922113e-01 1.940344e-01 1.958687e-01 1.977143e-01 1.995711e-01 2.014393e-01 2.033189e-01 2.052101e-01 2.071129e-01 2.090273e-01 2.109534e-01 2.128913e-01 2.148411e-01 2.168028e-01 2.187766e-01 2.207624e-01 2.227604e-01 2.247707e-01 2.267932e-01 2.288282e-01 2.308756e-01 2.329355e-01 2.350081e-01 2.370934e-01 2.391914e-01 2.413023e-01 2.434261e-01 2.455629e-01 2.477128e-01 2.498759e-01 2.520522e-01 2.542419e-01 2.564449e-01 2.586615e-01 2.608916e-01 2.631354e-01 2.653930e-01 2.676643e-01 2.699496e-01 2.722489e-01 2.745622e-01 2.768898e-01 2.792315e-01 2.815877e-01 2.839582e-01 2.863433e-01 2.887430e-01 2.911574e-01 2.935866e-01 2.960306e-01 2.984896e-01 3.009637e-01 3.034530e-01 3.059574e-01 3.084773e-01 3.110125e-01 3.135633e-01 3.161297e-01 3.187118e-01 3.213098e-01 3.240409e-01 3.269119e-01 3.299301e-01 3.331030e-01 3.364385e-01 3.399449e-01 3.436311e-01 3.475061e-01 3.515798e-01 3.558622e-01 3.603641e-01 3.650967e-01 3.700719e-01 3.753021e-01 3.808003e-01 3.865802e-01 3.926564e-01 3.990440e-01 4.057590e-01 4.128181e-01 4.207243e-01 4.295793e-01 4.394968e-01 4.506045e-01 4.630450e-01 4.769785e-01 4.925839e-01 5.100620e-01 5.296375e-01 5.515620e-01 5.761175e-01 6.036196e-01 6.344220e-01 6.689207e-01 7.075592e-01 7.508343e-01 7.993025e-01 8.535868e-01 9.143853e-01 9.824795e-01 1.058745e+00 1.144163e+00 1.239830e+00 1.346978e+00 1.466983e+00 1.601389e+00 1.751924e+00 1.920523e+00 2.109353e+00 
3.000000e+02 2.300000e+03 2.300000e+03 2.300000e+03 2.300000e+03 2.300000e+03 2.300000e+03 2.300000e+03 2.300000e+03 2.300000e+03 2.300000e+03 2.300000e+03 2.300000e+03 2.300000e+03 2.300000e+03 2.300000e+03 2.300000e+03 2.300000e+03 2.300000e+03 2.300000e+03 2.300000e+03 2.300000e+03 2.300000e+03 2.300000e+03 2.300000e+03 2.300000e+03 2.300000e+03 2.300000e+03 2.300000e+03 2.300000e+03 2.300000e+03 2.300000e+03 2.300000e+03 2.300000e+03 2.300000e+03 2.300000e+03 2.300000e+03 2.300000e+03 2.300000e+03 2.300000e+03 2.300000e+03 2.300000e+03 2.300000e+03 2.300000e+03 2.300000e+03 2.300000e+03 2.300000e+03 2.300000e+03 2.300000e+03 2.300000e+03 2.300000e+03 2.300000e+03 2.300000e+03 2.300000e+03 2.300000e+03 2.300000e+03 2.300000e+03 2.300000e+03 2.300000e+03 2.300000e+03 2.300000e+03 2.300000e+03 2.300000e+03 2.300000e+03 2.300000e+03 2.300000e+03 2.300000e+03 2.300000e+03 2.300000e+03 2.300000e+03 2.300000e+03 2.300000e+03 2.300000e+03 2.300000e+03 2.300000e+03 2.300000e+03 2.300000e+03 2.300000e+03 2.300000e+03 2.300000e+03 2.300000e+03 2.300000e+03 2.300000e+03 2.300000e+03 2.300000e+03 2.300000e+03 2.300000e+03 2.300000e+03 2.300000e+03 2.300000e+03 2.300000e+03 2.300000e+03 2.300000e+03 2.300000e+03 2.300000e+03 2.300000e+03 2.300000e+03 2.300000e+03 2.300000e+03 2.300000e+03 2.300000e+03 2.300000e+03 2.300000e+03 2.300000e+03 2.300000e+03 2.300000e+03 2.300000e+03 2.300000e+03 2.300000e+03 2.300000e+03 2.300000e+03 2.300000e+03 2.300000e+03 2.300000e+03 2.300000e+03 2.300000e+03 2.300000e+03 2.300000e+03 2.300000e+03 2.300000e+03 2.300000e+03 2.300000e+03 2.300000e+03 2.300000e+03 2.300000e+03 2.300000e+03 2.300000e+03 2.300000e+03 2.300000e+03 2.300000e+03 2.300000e+03 2.300000e+03 2.300000e+03 2.300000e+03 2.300000e+03 2.300000e+03 2.300000e+03 2.300000e+03 2.300000e+03 2.300000e+03 2.300000e+03 2.300000e+03 2.300000e+03 2.300000e+03 2.300000e+03 2.300000e+03 2.300000e+03 2.300000e+03 2.300000e+03 2.300000e+03 2.300000e+03 2.300000e+03 2.300000e+03 2.300000e+03 2.300000e+03 2.300000e+03 2.300000e+03 2.300000e+03 2.300000e+03 2.300000e+03 2.300000e+03 2.300000e+03 2.300000e+03 2.300000e+03 2.300000e+03 2.300000e+03 2.300000e+03 2.300000e+03 2.300000e+03 2.300000e+03 2.300000e+03 2.300000e+03 2.300000e+03 2.300000e+03 2.300000e+03 2.300000e+03 2.300000e+03 2.300000e+03 2.300000e+03 2.300000e+03 2.300000e+03 2.300000e+03 2.300000e+03 2.300000e+03 2.300000e+03 2.300000e+03 2.300000e+03 2.300000e+03 2.300000e+03 2.300000e+03 2.300000e+03 2.300000e+03 2.300000e+03 2.300000e+03 2.300000e+03 2.300000e+03 2.300000e+03 2.300000e+03 2.300000e+03 2.300000e+03 2.300000e+03 2.300000e+03 2.300000e+03 2.300000e+03 2.300000e+03 2.300000e+03 2.300000e+03 2.300000e+03 2.300000e+03 2.300000e+03 2.300000e+03 2.300000e+03 2.300000e+03 2.300000e+03 2.300000e+03 2.300000e+03 2.300000e+03 2.300000e+03 2.300000e+03 2.300000e+03 2.300000e+03 2.300000e+03 2.300000e+03 2.300000e+03 2.300000e+03 2.300000e+03 2.300000e+03 2.300000e+03 2.300000e+03 2.300000e+03 2.300000e+03 2.300000e+03 2.300000e+03 2.300000e+03 2.300000e+03 2.300000e+03 2.300000e+03 2.300000e+03 2.300000e+03 2.300000e+03 2.300000e+03 2.300000e+03 2.300000e+03 2.300000e+03 2.300000e+03 2.300000e+03 2.300000e+03 2.300000e+03 2.300000e+03 2.300000e+03 
1.760000e-02 0.000000e+00 0.000000e+00 0.000000e+00 0.000000e+00 0.000000e+00 0.000000e+00 0.000000e+00 0.000000e+00 0.000000e+00 0.000000e+00 0.000000e+00 0.000000e+00 0.000000e+00 0.000000e+00 0.000000e+00 0.000000e+00 0.000000e+00 0.000000e+00 0.000000e+00 0.000000e+00 0.000000e+00 0.000000e+00 0.000000e+00 0.000000e+00 0.000000e+00 0.000000e+00 0.000000e+00 0.000000e+00 0.000000e+00 0.000000e+00 0.000000e+00 0.000000e+00 0.000000e+00 0.000000e+00 0.000000e+00 0.000000e+00 0.000000e+00 0.000000e+00 0.000000e+00 0.000000e+00 0.000000e+00 0.000000e+00 0.000000e+00 0.000000e+00 0.000000e+00 0.000000e+00 0.000000e+00 0.000000e+00 0.000000e+00 0.000000e+00 0.000000e+00 0.000000e+00 0.000000e+00 0.000000e+00 0.000000e+00 0.000000e+00 0.000000e+00 0.000000e+00 0.000000e+00 0.000000e+00 0.000000e+00 0.000000e+00 0.000000e+00 0.000000e+00 0.000000e+00 0.000000e+00 0.000000e+00 0.000000e+00 0.000000e+00 0.000000e+00 0.000000e+00 0.000000e+00 0.000000e+00 0.000000e+00 0.000000e+00 0.000000e+00 0.000000e+00 0.000000e+00 0.000000e+00 0.000000e+00 0.000000e+00 0.000000e+00 0.000000e+00 0.000000e+00 0.000000e+00 0.000000e+00 0.000000e+00 0.000000e+00 0.000000e+00 0.000000e+00 0.000000e+00 0.000000e+00 0.000000e+00 0.000000e+00 0.000000e+00 0.000000e+00 0.000000e+00 0.000000e+00 0.000000e+00 0.000000e+00 0.000000e+00 0.000000e+00 0.000000e+00 0.000000e+00 0.000000e+00 0.000000e+00 0.000000e+00 0.000000e+00 0.000000e+00 0.000000e+00 0.000000e+00 0.000000e+00 0.000000e+00 0.000000e+00 0.000000e+00 0.000000e+00 0.000000e+00 0.000000e+00 0.000000e+00 0.000000e+00 0.000000e+00 0.000000e+00 0.000000e+00 0.000000e+00 0.000000e+00 0.000000e+00 0.000000e+00 0.000000e+00 0.000000e+00 0.000000e+00 0.000000e+00 0.000000e+00 0.000000e+00 0.000000e+00 0.000000e+00 0.000000e+00 0.000000e+00 0.000000e+00 0.000000e+00 0.000000e+00 0.000000e+00 0.000000e+00 0.000000e+00 0.000000e+00 0.000000e+00 0.000000e+00 0.000000e+00 0.000000e+00 0.000000e+00 0.000000e+00 0.000000e+00 0.000000e+00 0.000000e+00 0.000000e+00 0.000000e+00 0.000000e+00 0.000000e+00 0.000000e+00 0.000000e+00 0.000000e+00 0.000000e+00 0.000000e+00 0.000000e+00 0.000000e+00 0.000000e+00 0.000000e+00 0.000000e+00 0.000000e+00 0.000000e+00 0.000000e+00 0.000000e+00 0.000000e+00 0.000000e+00 0.000000e+00 0.000000e+00 0.000000e+00 0.000000e+00 0.000000e+00 0.000000e+00 0.000000e+00 0.000000e+00 0.000000e+00 0.000000e+00 0.000000e+00 0.000000e+00 0.000000e+00 0.000000e+00 0.000000e+00 0.000000e+00 0.000000e+00 0.000000e+00 0.000000e+00 0.000000e+00 0.000000e+00 0.000000e+00 0.000000e+00 0.000000e+00 0.000000e+00 0.000000e+00 0.000000e+00 0.000000e+00 0.000000e+00 0.000000e+00 0.000000e+00 0.000000e+00 0.000000e+00 0.000000e+00 0.000000e+00 0.000000e+00 0.000000e+00 0.000000e+00 0.000000e+00 0.000000e+00 0.000000e+00 0.000000e+00 0.000000e+00 0.000000e+00 0.000000e+00 0.000000e+00 0.000000e+00 0.000000e+00 0.000000e+00 0.000000e+00 0.000000e+00 0.000000e+00 0.000000e+00 0.000000e+00 0.000000e+00 0.000000e+00 0.000000e+00 0.000000e+00 0.000000e+00 0.000000e+00 0.000000e+00 0.000000e+00 0.000000e+00 0.000000e+00 0.000000e+00 0.000000e+00 0.000000e+00 0.000000e+00 0.000000e+00 0.000000e+00 0.000000e+00 0.000000e+00 0.000000e+00 0.000000e+00 0.000000e+00 0.000000e+00 
0.000000e+00 0.000000e+00 0.000000e+00 0.000000e+00 0.000000e+00 0.000000e+00 0.000000e+00 0.000000e+00 0.000000e+00 0.000000e+00 0.000000e+00 0.000000e+00 0.000000e+00 0.000000e+00 0.000000e+00 0.000000e+00 0.000000e+00 0.000000e+00 0.000000e+00 0.000000e+00 0.000000e+00 0.000000e+00 0.000000e+00 0.000000e+00 0.000000e+00 0.000000e+00 0.000000e+00 0.000000e+00 0.000000e+00 0.000000e+00 0.000000e+00 0.000000e+00 0.000000e+00 0.000000e+00 0.000000e+00 0.000000e+00 0.000000e+00 0.000000e+00 0.000000e+00 0.000000e+00 0.000000e+00 0.000000e+00 0.000000e+00 0.000000e+00 0.000000e+00 0.000000e+00 0.000000e+00 0.000000e+00 0.000000e+00 0.000000e+00 0.000000e+00 0.000000e+00 0.000000e+00 0.000000e+00 0.000000e+00 0.000000e+00 0.000000e+00 0.000000e+00 0.000000e+00 0.000000e+00 0.000000e+00 0.000000e+00 0.000000e+00 0.000000e+00 0.000000e+00 0.000000e+00 0.000000e+00 0.000000e+00 0.000000e+00 0.000000e+00 0.000000e+00 0.000000e+00 0.000000e+00 0.000000e+00 0.000000e+00 0.000000e+00 0.000000e+00 0.000000e+00 0.000000e+00 0.000000e+00 0.000000e+00 0.000000e+00 0.000000e+00 0.000000e+00 0.000000e+00 0.000000e+00 0.000000e+00 0.000000e+00 0.000000e+00 0.000000e+00 0.000000e+00 0.000000e+00 0.000000e+00 0.000000e+00 0.000000e+00 0.000000e+00 0.000000e+00 0.000000e+00 0.000000e+00 0.000000e+00 0.000000e+00 0.000000e+00 0.000000e+00 0.000000e+00 0.000000e+00 0.000000e+00 0.000000e+00 0.000000e+00 0.000000e+00 0.000000e+00 0.000000e+00 0.000000e+00 0.000000e+00 0.000000e+00 0.000000e+00 0.000000e+00 0.000000e+00 0.000000e+00 0.000000e+00 0.000000e+00 0.000000e+00 0.000000e+00 0.000000e+00 0.000000e+00 0.000000e+00 0.000000e+00 0.000000e+00 0.000000e+00 0.000000e+00 0.000000e+00 0.000000e+00 0.000000e+00 0.000000e+00 0.000000e+00 0.000000e+00 0.000000e+00 0.000000e+00 0.000000e+00 0.000000e+00 0.000000e+00 0.000000e+00 0.000000e+00 0.000000e+00 0.000000e+00 0.000000e+00 0.000000e+00 0.000000e+00 0.000000e+00 0.000000e+00 0.000000e+00 0.000000e+00 0.000000e+00 0.000000e+00 0.000000e+00 0.000000e+00 0.000000e+00 0.000000e+00 0.000000e+00 0.000000e+00 0.000000e+00 0.000000e+00 0.000000e+00 0.000000e+00 0.000000e+00 0.000000e+00 0.000000e+00 0.000000e+00 0.000000e+00 0.000000e+00 0.000000e+00 0.000000e+00 0.000000e+00 0.000000e+00 0.000000e+00 0.000000e+00 0.000000e+00 0.000000e+00 0.000000e+00 0.000000e+00 0.000000e+00 0.000000e+00 0.000000e+00 0.000000e+00 0.000000e+00 0.000000e+00 0.000000e+00 0.000000e+00 0.000000e+00 0.000000e+00 0.000000e+00 0.000000e+00 0.000000e+00 0.000000e+00 0.000000e+00 0.000000e+00 0.000000e+00 0.000000e+00 0.000000e+00 0.000000e+00 0.000000e+00 0.000000e+00 0.000000e+00 0.000000e+00 0.000000e+00 0.000000e+00 0.000000e+00 0.000000e+00 0.000000e+00 0.000000e+00 0.000000e+00 0.000000e+00 0.000000e+00 0.000000e+00 0.000000e+00 0.000000e+00 0.000000e+00 0.000000e+00 0.000000e+00 0.000000e+00 0.000000e+00 0.000000e+00 0.000000e+00 0.000000e+00 0.000000e+00 0.000000e+00 0.000000e+00 0.000000e+00 0.000000e+00 0.000000e+00 0.000000e+00 0.000000e+00 0.000000e+00 0.000000e+00 0.000000e+00 0.000000e+00 0.000000e+00 0.000000e+00 0.000000e+00 0.000000e+00 0.000000e+00 0.000000e+00 0.000000e+00 0.000000e+00 0.000000e+00 0.000000e+00 0.000000e+00 0.000000e+00 0.000000e+00 0.000000e+00 0.000000e+00 
0.000000e+00 0.000000e+00 0.000000e+00 0.000000e+00 0.000000e+00 0.000000e+00 0.000000e+00 0.000000e+00 0.000000e+00 0.000000e+00 0.000000e+00 0.000000e+00 0.000000e+00 0.000000e+00 0.000000e+00 0.000000e+00 0.000000e+00 0.000000e+00 0.000000e+00 0.000000e+00 0.000000e+00 0.000000e+00 0.000000e+00 0.000000e+00 0.000000e+00 0.000000e+00 0.000000e+00 0.000000e+00 0.000000e+00 0.000000e+00 0.000000e+00 0.000000e+00 0.000000e+00 0.000000e+00 0.000000e+00 0.000000e+00 0.000000e+00 0.000000e+00 0.000000e+00 0.000000e+00 0.000000e+00 0.000000e+00 0.000000e+00 0.000000e+00 0.000000e+00 0.000000e+00 0.000000e+00 0.000000e+00 0.000000e+00 0.000000e+00 0.000000e+00 0.000000e+00 0.000000e+00 0.000000e+00 0.000000e+00 0.000000e+00 0.000000e+00 0.000000e+00 0.000000e+00 0.000000e+00 0.000000e+00 0.000000e+00 0.000000e+00 0.000000e+00 0.000000e+00 0.000000e+00 0.000000e+00 0.000000e+00 0.000000e+00 0.000000e+00 0.000000e+00 0.000000e+00 0.000000e+00 0.000000e+00 0.000000e+00 0.000000e+00 0.000000e+00 0.000000e+00 0.000000e+00 0.000000e+00 0.000000e+00 0.000000e+00 0.000000e+00 0.000000e+00 0.000000e+00 0.000000e+00 0.000000e+00 0.000000e+00 0.000000e+00 0.000000e+00 0.000000e+00 0.000000e+00 0.000000e+00 0.000000e+00 0.000000e+00 0.000000e+00 0.000000e+00 0.000000e+00 0.000000e+00 0.000000e+00 0.000000e+00 0.000000e+00 0.000000e+00 0.000000e+00 0.000000e+00 0.000000e+00 0.000000e+00 0.000000e+00 0.000000e+00 0.000000e+00 0.000000e+00 0.000000e+00 0.000000e+00 0.000000e+00 0.000000e+00 0.000000e+00 0.000000e+00 0.000000e+00 0.000000e+00 0.000000e+00 0.000000e+00 0.000000e+00 0.000000e+00 0.000000e+00 0.000000e+00 0.000000e+00 0.000000e+00 0.000000e+00 0.000000e+00 0.000000e+00 0.000000e+00 0.000000e+00 0.000000e+00 0.000000e+00 0.000000e+00 0.000000e+00 0.000000e+00 0.000000e+00 0.000000e+00 0.000000e+00 0.000000e+00 0.000000e+00 0.000000e+00 0.000000e+00 0.000000e+00 0.000000e+00 0.000000e+00 0.000000e+00 0.000000e+00 0.000000e+00 0.000000e+00 0.000000e+00 0.000000e+00 0.000000e+00 0.000000e+00 0.000000e+00 0.000000e+00 0.000000e+00 0.000000e+00 0.000000e+00 0.000000e+00 0.000000e+00 0.000000e+00 0.000000e+00 0.000000e+00 0.000000e+00 0.000000e+00 0.000000e+00 0.000000e+00 0.000000e+00 0.000000e+00 0.000000e+00 0.000000e+00 0.000000e+00 0.000000e+00 0.000000e+00 0.000000e+00 0.000000e+00 0.000000e+00 0.000000e+00 0.000000e+00 0.000000e+00 0.000000e+00 0.000000e+00 0.000000e+00 0.000000e+00 0.000000e+00 0.000000e+00 0.000000e+00 0.000000e+00 0.000000e+00 0.000000e+00 0.000000e+00 0.000000e+00 0.000000e+00 0.000000e+00 0.000000e+00 0.000000e+00 0.000000e+00 0.000000e+00 0.000000e+00 0.000000e+00 0.000000e+00 0.000000e+00 0.000000e+00 0.000000e+00 0.000000e+00 0.000000e+00 0.000000e+00 0.000000e+00 0.000000e+00 0.000000e+00 0.000000e+00 0.000000e+00 0.000000e+00 0.000000e+00 0.000000e+00 0.000000e+00 0.000000e+00 0.000000e+00 0.000000e+00 0.000000e+00 0.000000e+00 0.000000e+00 0.000000e+00 0.000000e+00 0.000000e+00 0.000000e+00 0.000000e+00 0.000000e+00 0.000000e+00 0.000000e+00 0.000000e+00 0.000000e+00 0.000000e+00 0.000000e+00 0.000000e+00 0.000000e+00 0.000000e+00 0.000000e+00 0.000000e+00 0.000000e+00 0.000000e+00 0.000000e+00 0.000000e+00 0.000000e+00 0.000000e+00 0.000000e+00 0.000000e+00 0.000000e+00 
0.000000e+00 0.000000e+00 0.000000e+00 0.000000e+00 0.000000e+00 0.000000e+00 0.000000e+00 0.000000e+00 0.000000e+00 0.000000e+00 0.000000e+00 0.000000e+00 0.000000e+00 0.000000e+00 0.000000e+00 0.000000e+00 0.000000e+00 0.000000e+00 0.000000e+00 0.000000e+00 0.000000e+00 0.000000e+00 0.000000e+00 0.000000e+00 0.000000e+00 0.000000e+00 0.000000e+00 0.000000e+00 0.000000e+00 0.000000e+00 0.000000e+00 0.000000e+00 0.000000e+00 0.000000e+00 0.000000e+00 0.000000e+00 0.000000e+00 0.000000e+00 0.000000e+00 0.000000e+00 0.000000e+00 0.000000e+00 0.000000e+00 0.000000e+00 0.000000e+00 0.000000e+00 0.000000e+00 0.000000e+00 0.000000e+00 0.000000e+00 0.000000e+00 0.000000e+00 0.000000e+00 0.000000e+00 0.000000e+00 0.000000e+00 0.000000e+00 0.000000e+00 0.000000e+00 0.000000e+00 0.000000e+00 0.000000e+00 0.000000e+00 0.000000e+00 0.000000e+00 0.000000e+00 0.000000e+00 0.000000e+00 0.000000e+00 0.000000e+00 0.000000e+00 0.000000e+00 0.000000e+00 0.000000e+00 0.000000e+00 0.000000e+00 0.000000e+00 0.000000e+00 0.000000e+00 0.000000e+00 0.000000e+00 0.000000e+00 0.000000e+00 0.000000e+00 0.000000e+00 0.000000e+00 0.000000e+00 0.000000e+00 0.000000e+00 0.000000e+00 0.000000e+00 0.000000e+00 0.000000e+00 0.000000e+00 0.000000e+00 0.000000e+00 0.000000e+00 0.000000e+00 0.000000e+00 0.000000e+00 0.000000e+00 0.000000e+00 0.000000e+00 0.000000e+00 0.000000e+00 0.000000e+00 0.000000e+00 0.000000e+00 0.000000e+00 0.000000e+00 0.000000e+00 0.000000e+00 0.000000e+00 0.000000e+00 0.000000e+00 0.000000e+00 0.000000e+00 0.000000e+00 0.000000e+00 0.000000e+00 0.000000e+00 0.000000e+00 0.000000e+00 0.000000e+00 0.000000e+00 0.000000e+00 0.000000e+00 0.000000e+00 0.000000e+00 0.000000e+00 0.000000e+00 0.000000e+00 0.000000e+00 0.000000e+00 0.000000e+00 0.000000e+00 0.000000e+00 0.000000e+00 0.000000e+00 0.000000e+00 0.000000e+00 0.000000e+00 0.000000e+00 0.000000e+00 0.000000e+00 0.000000e+00 0.000000e+00 0.000000e+00 0.000000e+00 0.000000e+00 0.000000e+00 0.000000e+00 0.000000e+00 0.000000e+00 0.000000e+00 0.000000e+00 0.000000e+00 0.000000e+00 0.000000e+00 0.000000e+00 0.000000e+00 0.000000e+00 0.000000e+00 0.000000e+00 0.000000e+00 0.000000e+00 0.000000e+00 0.000000e+00 0.000000e+00 0.000000e+00 0.000000e+00 0.000000e+00 0.000000e+00 0.000000e+00 0.000000e+00 0.000000e+00 0.000000e+00 0.000000e+00 0.000000e+00 0.000000e+00 0.000000e+00 0.000000e+00 0.000000e+00 0.000000e+00 0.000000e+00 0.000000e+00 0.000000e+00 0.000000e+00 0.000000e+00 0.000000e+00 0.000000e+00 0.000000e+00 0.000000e+00 0.000000e+00 0.000000e+00 0.000000e+00 0.000000e+00 0.000000e+00 0.000000e+00 0.000000e+00 0.000000e+00 0.000000e+00 0.000000e+00 0.000000e+00 0.000000e+00 0.000000e+00 0.000000e+00 0.000000e+00 0.000000e+00 0.000000e+00 0.000000e+00 0.000000e+00 0.000000e+00 0.000000e+00 0.000000e+00 0.000000e+00 0.000000e+00 0.000000e+00 0.000000e+00 0.000000e+00 0.000000e+00 0.000000e+00 0.000000e+00 0.000000e+00 0.000000e+00 0.000000e+00 0.000000e+00 0.000000e+00 0.000000e+00 0.000000e+00 0.000000e+00 0.000000e+00 0.000000e+00 0.000000e+00 0.000000e+00 0.000000e+00 0.000000e+00 0.000000e+00 0.000000e+00 0.000000e+00 0.000000e+00 0.000000e+00 0.000000e+00 0.000000e+00 0.000000e+00 0.000000e+00 0.000000e+00 0.000000e+00 0.000000e+00 0.000000e+00 
8.000000e-01 1.000000e+00 1.000000e+00 1.000000e+00 1.000000e+00 1.000000e+00 1.000000e+00 1.000000e+00 1.000000e+00 1.000000e+00 1.000000e+00 1.000000e+00 1.000000e+00 1.000000e+00 1.000000e+00 1.000000e+00 1.000000e+00 1.000000e+00 1.000000e+00 1.000000e+00 1.000000e+00 1.000000e+00 1.000000e+00 1.000000e+00 1.000000e+00 1.000000e+00 1.000000e+00 1.000000e+00 1.000000e+00 1.000000e+00 1.000000e+00 1.000000e+00 1.000000e+00 1.000000e+00 1.000000e+00 1.000000e+00 1.000000e+00 1.000000e+00 1.000000e+00 1.000000e+00 1.000000e+00 1.000000e+00 1.000000e+00 1.000000e+00 1.000000e+00 1.000000e+00 1.000000e+00 1.000000e+00 1.000000e+00 1.000000e+00 1.000000e+00 1.000000e+00 1.000000e+00 1.000000e+00 1.000000e+00 1.000000e+00 1.000000e+00 1.000000e+00 1.000000e+00 1.000000e+00 1.000000e+00 1.000000e+00 1.000000e+00 1.000000e+00 1.000000e+00 1.000000e+00 1.000000e+00 1.000000e+00 1.000000e+00 1.000000e+00 1.000000e+00 1.000000e+00 1.000000e+00 1.000000e+00 1.000000e+00 1.000000e+00 1.000000e+00 1.000000e+00 1.000000e+00 1.000000e+00 1.000000e+00 1.000000e+00 1.000000e+00 1.000000e+00 1.000000e+00 1.000000e+00 1.000000e+00 1.000000e+00 1.000000e+00 1.000000e+00 1.000000e+00 1.000000e+00 1.000000e+00 1.000000e+00 1.000000e+00 1.000000e+00 1.000000e+00 1.000000e+00 1.000000e+00 1.000000e+00 1.000000e+00 1.000000e+00 1.000000e+00 1.000000e+00 1.000000e+00 1.000000e+00 1.000000e+00 1.000000e+00 1.000000e+00 1.000000e+00 1.000000e+00 1.000000e+00 1.000000e+00 1.000000e+00 1.000000e+00 1.000000e+00 1.000000e+00 1.000000e+00 1.000000e+00 1.000000e+00 1.000000e+00 1.000000e+00 1.000000e+00 1.000000e+00 1.000000e+00 1.000000e+00 1.000000e+00 1.000000e+00 1.000000e+00 1.000000e+00 1.000000e+00 1.000000e+00 1.000000e+00 1.000000e+00 1.000000e+00 1.000000e+00 1.000000e+00 1.000000e+00 1.000000e+00 1.000000e+00 1.000000e+00 1.000000e+00 1.000000e+00 1.000000e+00 1.000000e+00 1.000000e+00 1.000000e+00 1.000000e+00 1.000000e+00 1.000000e+00 1.000000e+00 1.000000e+00 1.000000e+00 1.000000e+00 1.000000e+00 1.000000e+00 1.000000e+00 1.000000e+00 1.000000e+00 1.000000e+00 1.000000e+00 1.000000e+00 1.000000e+00 1.000000e+00 1.000000e+00 1.000000e+00 1.000000e+00 1.000000e+00 1.000000e+00 1.000000e+00 1.000000e+00 1.000000e+00 1.000000e+00 1.000000e+00 1.000000e+00 1.000000e+00 1.000000e+00 1.000000e+00 1.000000e+00 1.000000e+00 1.000000e+00 1.000000e+00 1.000000e+00 1.000000e+00 1.000000e+00 1.000000e+00 1.000000e+00 1.000000e+00 1.000000e+00 1.000000e+00 1.000000e+00 1.000000e+00 1.000000e+00 1.000000e+00 1.000000e+00 1.000000e+00 1.000000e+00 1.000000e+00 1.000000e+00 1.000000e+00 1.000000e+00 1.000000e+00 1.000000e+00 1.000000e+00 1.000000e+00 1.000000e+00 1.000000e+00 1.000000e+00 1.000000e+00 1.000000e+00 1.000000e+00 1.000000e+00 1.000000e+00 1.000000e+00 1.000000e+00 1.000000e+00 1.000000e+00 1.000000e+00 1.000000e+00 1.000000e+00 1.000000e+00 1.000000e+00 1.000000e+00 1.000000e+00 1.000000e+00 1.000000e+00 1.000000e+00 1.000000e+00 1.000000e+00 1.000000e+00 1.000000e+00 1.000000e+00 1.000000e+00 1.000000e+00 1.000000e+00 1.000000e+00 1.000000e+00 1.000000e+00 1.000000e+00 1.000000e+00 1.000000e+00 1.000000e+00 1.000000e+00 1.000000e+00 1.000000e+00 1.000000e+00 1.000000e+00 1.000000e+00 1.000000e+00 1.000000e+00 
0.000000e+00 0.000000e+00 0.000000e+00 0.000000e+00 0.000000e+00 0.000000e+00 0.000000e+00 0.000000e+00 0.000000e+00 0.000000e+00 0.000000e+00 0.000000e+00 0.000000e+00 0.000000e+00 0.000000e+00 0.000000e+00 0.000000e+00 0.000000e+00 0.000000e+00 0.000000e+00 0.000000e+00 0.000000e+00 0.000000e+00 0.000000e+00 0.000000e+00 0.000000e+00 0.000000e+00 0.000000e+00 0.000000e+00 0.000000e+00 0.000000e+00 0.000000e+00 0.000000e+00 0.000000e+00 0.000000e+00 0.000000e+00 0.000000e+00 0.000000e+00 0.000000e+00 0.000000e+00 0.000000e+00 0.000000e+00 0.000000e+00 0.000000e+00 0.000000e+00 0.000000e+00 0.000000e+00 0.000000e+00 0.000000e+00 0.000000e+00 0.000000e+00 0.000000e+00 0.000000e+00 0.000000e+00 0.000000e+00 0.000000e+00 0.000000e+00 0.000000e+00 0.000000e+00 0.000000e+00 0.000000e+00 0.000000e+00 0.000000e+00 0.000000e+00 0.000000e+00 0.000000e+00 0.000000e+00 0.000000e+00 0.000000e+00 0.000000e+00 0.000000e+00 0.000000e+00 0.000000e+00 0.000000e+00 0.000000e+00 0.000000e+00 0.000000e+00 0.000000e+00 0.000000e+00 0.000000e+00 0.000000e+00 0.000000e+00 0.000000e+00 0.000000e+00 0.000000e+00 0.000000e+00 0.000000e+00 0.000000e+00 0.000000e+00 0.000000e+00 0.000000e+00 0.000000e+00 0.000000e+00 0.000000e+00 0.000000e+00 0.000000e+00 0.000000e+00 0.000000e+00 0.000000e+00 0.000000e+00 0.000000e+00 0.000000e+00 0.000000e+00 0.000000e+00 0.000000e+00 0.000000e+00 0.000000e+00 0.000000e+00 0.000000e+00 0.000000e+00 0.000000e+00 0.000000e+00 0.000000e+00 0.000000e+00 0.000000e+00 0.000000e+00 0.000000e+00 0.000000e+00 0.000000e+00 0.000000e+00 0.000000e+00 0.000000e+00 0.000000e+00 0.000000e+00 0.000000e+00 0.000000e+00 0.000000e+00 0.000000e+00 0.000000e+00 0.000000e+00 0.000000e+00 0.000000e+00 0.000000e+00 0.000000e+00 0.000000e+00 0.000000e+00 0.000000e+00 0.000000e+00 0.000000e+00 0.000000e+00 0.000000e+00 0.000000e+00 0.000000e+00 0.000000e+00 0.000000e+00 0.000000e+00 0.000000e+00 0.000000e+00 0.000000e+00 0.000000e+00 0.000000e+00 0.000000e+00 0.000000e+00 0.000000e+00 0.000000e+00 0.000000e+00 0.000000e+00 0.000000e+00 0.000000e+00 0.000000e+00 0.000000e+00 0.000000e+00 0.000000e+00 0.000000e+00 0.000000e+00 0.000000e+00 0.000000e+00 0.000000e+00 0.000000e+00 0.000000e+00 0.000000e+00 0.000000e+00 0.000000e+00 0.000000e+00 0.000000e+00 0.000000e+00 0.000000e+00 0.000000e+00 0.000000e+00 0.000000e+00 0.000000e+00 0.000000e+00 0.000000e+00 0.000000e+00 0.000000e+00 0.000000e+00 0.000000e+00 0.000000e+00 0.000000e+00 0.000000e+00 0.000000e+00 0.000000e+00 0.000000e+00 0.000000e+00 0.000000e+00 0.000000e+00 0.000000e+00 0.000000e+00 0.000000e+00 0.000000e+00 0.000000e+00 0.000000e+00 0.000000e+00 0.000000e+00 0.000000e+00 0.000000e+00 0.000000e+00 0.000000e+00 0.000000e+00 0.000000e+00 0.000000e+00 0.000000e+00 0.000000e+00 0.000000e+00 0.000000e+00 0.000000e+00 0.000000e+00 0.000000e+00 0.000000e+00 0.000000e+00 0.000000e+00 0.000000e+00 0.000000e+00 0.000000e+00 0.000000e+00 0.000000e+00 0.000000e+00 0.000000e+00 0.000000e+00 0.000000e+00 0.000000e+00 0.000000e+00 0.000000e+00 0.000000e+00 0.000000e+00 0.000000e+00 0.000000e+00 0.000000e+00 0.000000e+00 0.000000e+00 0.000000e+00 0.000000e+00 0.000000e+00 0.000000e+00 0.000000e+00 0.000000e+00 0.000000e+00 0.000000e+00 0.000000e+00 0.000000e+00 