VARIABLES = "X", "Y", "Temperature", "U", "x_NC12H26", "x_N2", "x_H2O"
ZONE I=250, J=10, DATAPACKING=BLOCK
0.025 0.0255 0.0260106 0.0265321 0.0270647 0.0276085 0.028164 0.0287312 0.0293105 0.0299021 0.0305063 0.0311233 0.0317534 0.0323969 0.0330541 0.0337252 0.0344106 0.0351106 0.0358255 0.0365555 0.0373011 0.0380625 0.03884 0.0396341 0.0404451 0.0412733 0.0421191 0.0429829 0.043865 0.0447659 0.0456859 0.0466116 0.0475429 0.04848 0.0494227 0.0503713 0.0513257 0.0522859 0.0532519 0.0542239 0.0552019 0.0561859 0.0571758 0.0581719 0.059174 0.0601823 0.0611967 0.0622174 0.0632443 0.0642775 0.065317 0.0663629 0.0674153 0.068474 0.0695392 0.070611 0.0716893 0.0727743 0.0738658 0.0749641 0.0760691 0.0771809 0.0782994 0.0794248 0.0805572 0.0816964 0.0828426 0.0839959 0.0851562 0.0863236 0.0874982 0.0886799 0.0898689 0.0910652 0.0922688 0.0934798 0.0946982 0.0959241 0.0971574 0.0983983 0.0996469 0.100903 0.102167 0.103439 0.104718 0.106005 0.1073 0.108603 0.109914 0.111233 0.112561 0.113896 0.115239 0.116591 0.117951 0.119319 0.120696 0.122081 0.123475 0.124877 0.126287 0.127707 0.129135 0.130571 0.132017 0.133472 0.134935 0.136407 0.137888 0.139379 0.140878 0.142387 0.143905 0.145432 0.146969 0.148515 0.15007 0.151635 0.15321 0.154794 0.156388 0.157992 0.159606 0.161229 0.162862 0.164506 0.166159 0.167823 0.169496 0.17118 0.172875 0.174579 0.176295 0.17802 0.179756 0.181503 0.183261 0.185029 0.186808 0.188598 0.190399 0.192211 0.194034 0.195869 0.197714 0.199571 0.201439 0.203319 0.20521 0.207113 0.209027 0.210953 0.212891 0.214841 0.216803 0.218777 0.220762 0.22276 0.224771 0.226793 0.228828 0.230876 0.232936 0.235008 0.237093 0.239191 0.241302 0.243426 0.245563 0.247713 0.249876 0.252052 0.254242 0.256445 0.258661 0.260892 0.263135 0.265393 0.267664 0.26995 0.272249 0.274562 0.27689 0.279232 0.281588 0.283958 0.286343 0.288743 0.291157 0.293587 0.296031 0.29849 0.300964 0.303453 0.305957 0.308477 0.311013 0.313563 0.31613 0.318712 0.32131 0.324041 0.326912 0.32993 0.333103 0.336439 0.339945 0.343631 0.347506 0.35158 0.355862 0.360364 0.365097 0.370072 0.375302 0.3808 0.38658 0.392656 0.399044 0.405759 0.412818 0.420724 0.429579 0.439497 0.450604 0.463045 0.476978 0.492584 0.510062 0.529637 0.551562 0.576117 0.60362 0.634422 0.668921 0.707559 0.750834 0.799302 0.853587 0.914385 0.98248 1.05875 1.14416 1.23983 1.34698 1.46698 1.60139 1.75192 1.92052 2.10935 0.0249049 0.025403 0.0259116 0.0264311 0.0269617 0.0275035 0.0280568 0.0286219 0.029199 0.0297883 0.0303902 0.0310048 0.0316325 0.0322736 0.0329283 0.0335969 0.0342797 0.034977 0.0356891 0.0364164 0.0371591 0.0379176 0.0386922 0.0394833 0.0402912 0.0411163 0.0419588 0.0428193 0.0436981 0.0445956 0.0455121 0.0464342 0.047362 0.0482955 0.0492347 0.0501796 0.0511303 0.0520869 0.0530493 0.0540176 0.0549918 0.055972 0.0569583 0.0579505 0.0589488 0.0599533 0.0609639 0.0619806 0.0630036 0.0640329 0.0650685 0.0661104 0.0671587 0.0682134 0.0692746 0.0703423 0.0714165 0.0724973 0.0735848 0.0746788 0.0757796 0.0768872 0.0780015 0.0791226 0.0802506 0.0813855 0.0825274 0.0836762 0.0848321 0.0859951 0.0871652 0.0883425 0.0895269 0.0907187 0.0919177 0.0931241 0.0943378 0.095559 0.0967877 0.0980239 0.0992677 0.100519 0.101778 0.103045 0.104319 0.105602 0.106892 0.10819 0.109496 0.11081 0.112132 0.113462 0.114801 0.116147 0.117502 0.118865 0.120237 0.121616 0.123005 0.124401 0.125807 0.127221 0.128643 0.130075 0.131515 0.132964 0.134421 0.135888 0.137364 0.138849 0.140342 0.141845 0.143357 0.144879 0.14641 0.14795 0.149499 0.151058 0.152627 0.154205 0.155793 0.157391 0.158998 0.160615 0.162243 0.16388 0.165527 0.167184 0.168851 0.170529 0.172217 0.173915 0.175624 0.177343 0.179072 0.180813 0.182563 0.184325 0.186097 0.187881 0.189675 0.19148 0.193296 0.195123 0.196962 0.198812 0.200673 0.202545 0.204429 0.206325 0.208232 0.210151 0.212081 0.214024 0.215978 0.217944 0.219922 0.221913 0.223915 0.22593 0.227957 0.229997 0.232049 0.234114 0.236191 0.238281 0.240384 0.2425 0.244628 0.24677 0.248925 0.251093 0.253274 0.255469 0.257677 0.259899 0.262134 0.264383 0.266646 0.268922 0.271213 0.273517 0.275836 0.278169 0.280516 0.282878 0.285254 0.287644 0.290049 0.292469 0.294904 0.297354 0.299818 0.302298 0.304793 0.307303 0.309829 0.31237 0.314927 0.317499 0.320087 0.322808 0.325668 0.328675 0.331835 0.335158 0.338651 0.342323 0.346184 0.350242 0.354508 0.358993 0.363707 0.368664 0.373874 0.379351 0.385109 0.391162 0.397526 0.404215 0.411247 0.419123 0.427945 0.437824 0.44889 0.461283 0.475163 0.490709 0.508121 0.527622 0.549463 0.573925 0.601323 0.632008 0.666375 0.704867 0.747977 0.796261 0.850339 0.910906 0.978741 1.05472 1.13981 1.23511 1.34185 1.4614 1.5953 1.74526 1.91321 2.10133 0.0246202 0.0251126 0.0256155 0.026129 0.0266535 0.0271891 0.0277361 0.0282947 0.0288652 0.0294478 0.0300428 0.0306504 0.031271 0.0319047 0.0325519 0.0332129 0.0338879 0.0345772 0.0352812 0.0360001 0.0367344 0.0374842 0.03825 0.039032 0.0398307 0.0406463 0.0414792 0.0423299 0.0431986 0.0440858 0.0449919 0.0459035 0.0468207 0.0477435 0.0486719 0.049606 0.0505459 0.0514915 0.0524429 0.0534002 0.0543633 0.0553323 0.0563072 0.0572881 0.058275 0.059268 0.060267 0.0612722 0.0622835 0.063301 0.0643247 0.0653547 0.0663911 0.0674337 0.0684828 0.0695383 0.0706002 0.0716687 0.0727437 0.0738252 0.0749134 0.0760083 0.0771099 0.0782182 0.0793333 0.0804552 0.0815841 0.0827198 0.0838625 0.0850121 0.0861689 0.0873327 0.0885036 0.0896817 0.090867 0.0920596 0.0932595 0.0944667 0.0956814 0.0969035 0.098133 0.0993701 0.100615 0.101867 0.103127 0.104395 0.10567 0.106953 0.108244 0.109544 0.11085 0.112165 0.113489 0.11482 0.116159 0.117506 0.118862 0.120226 0.121599 0.122979 0.124369 0.125767 0.127173 0.128588 0.130011 0.131444 0.132885 0.134335 0.135794 0.137261 0.138738 0.140224 0.141719 0.143223 0.144736 0.146259 0.147791 0.149332 0.150882 0.152443 0.154012 0.155592 0.157181 0.15878 0.160388 0.162006 0.163635 0.165273 0.166921 0.16858 0.170248 0.171927 0.173616 0.175316 0.177026 0.178746 0.180477 0.182218 0.18397 0.185733 0.187507 0.189291 0.191087 0.192893 0.194711 0.196539 0.198379 0.20023 0.202093 0.203966 0.205852 0.207749 0.209657 0.211577 0.213509 0.215453 0.217409 0.219376 0.221356 0.223348 0.225352 0.227368 0.229397 0.231438 0.233491 0.235558 0.237636 0.239728 0.241832 0.243949 0.24608 0.248223 0.250379 0.252549 0.254732 0.256928 0.259138 0.261361 0.263598 0.265848 0.268113 0.270391 0.272683 0.274989 0.27731 0.279644 0.281993 0.284356 0.286734 0.289126 0.291533 0.293955 0.296391 0.298843 0.301309 0.303791 0.306288 0.3088 0.311327 0.31387 0.316428 0.319118 0.321945 0.324918 0.328042 0.331327 0.33478 0.338411 0.342227 0.346239 0.350456 0.354889 0.35955 0.36445 0.3696 0.375015 0.380707 0.386691 0.392982 0.399595 0.406546 0.414333 0.423053 0.43282 0.443759 0.45601 0.469732 0.4851 0.502313 0.521591 0.543183 0.567365 0.594449 0.624784 0.658758 0.69681 0.739427 0.787159 0.840619 0.900494 0.967553 1.04266 1.12678 1.22099 1.32651 1.4447 1.57706 1.72531 1.89135 2.07731 0.0241481 0.0246311 0.0251243 0.025628 0.0261425 0.0266678 0.0272043 0.0277522 0.0283118 0.0288832 0.0294668 0.0300628 0.0306714 0.031293 0.0319278 0.0325761 0.0332381 0.0339142 0.0346047 0.0353099 0.0360301 0.0367655 0.0375166 0.0382836 0.039067 0.039867 0.0406839 0.0415183 0.0423704 0.0432406 0.0441292 0.0450234 0.045923 0.0468281 0.0477387 0.0486549 0.0495768 0.0505043 0.0514374 0.0523763 0.0533209 0.0542714 0.0552276 0.0561897 0.0571577 0.0581316 0.0591115 0.0600974 0.0610893 0.0620873 0.0630914 0.0641017 0.0651181 0.0661408 0.0671698 0.068205 0.0692466 0.0702945 0.0713489 0.0724098 0.0734771 0.074551 0.0756314 0.0767185 0.0778122 0.0789127 0.0800198 0.0811338 0.0822546 0.0833822 0.0845167 0.0856582 0.0868067 0.0879622 0.0891248 0.0902945 0.0914714 0.0926555 0.0938469 0.0950455 0.0962515 0.0974649 0.0986857 0.0999139 0.10115 0.102393 0.103644 0.104903 0.106169 0.107443 0.108725 0.110015 0.111313 0.112618 0.113932 0.115253 0.116583 0.117921 0.119267 0.120622 0.121984 0.123355 0.124735 0.126122 0.127519 0.128924 0.130337 0.131759 0.13319 0.13463 0.136078 0.137535 0.139002 0.140477 0.141961 0.143454 0.144957 0.146469 0.14799 0.14952 0.151059 0.152609 0.154167 0.155735 0.157313 0.1589 0.160497 0.162104 0.163721 0.165348 0.166984 0.168631 0.170287 0.171954 0.173631 0.175319 0.177016 0.178724 0.180443 0.182172 0.183912 0.185662 0.187423 0.189195 0.190977 0.192771 0.194575 0.196391 0.198218 0.200056 0.201905 0.203765 0.205637 0.207521 0.209415 0.211322 0.21324 0.21517 0.217112 0.219065 0.221031 0.223009 0.224998 0.227 0.229015 0.231041 0.23308 0.235132 0.237196 0.239272 0.241362 0.243464 0.245579 0.247707 0.249848 0.252002 0.254169 0.25635 0.258544 0.260751 0.262972 0.265207 0.267455 0.269717 0.271993 0.274283 0.276586 0.278904 0.281236 0.283583 0.285944 0.288319 0.290709 0.293113 0.295532 0.297966 0.300415 0.302879 0.305358 0.307852 0.310361 0.312999 0.315773 0.318688 0.321753 0.324975 0.328362 0.331922 0.335665 0.3396 0.343737 0.348085 0.352656 0.357462 0.362514 0.367825 0.373408 0.379277 0.385447 0.391933 0.398752 0.406388 0.414942 0.424521 0.43525 0.447267 0.460726 0.4758 0.492682 0.511591 0.532768 0.556487 0.583052 0.612805 0.646128 0.68345 0.72525 0.772067 0.824502 0.883228 0.949002 1.02267 1.10518 1.19758 1.30108 1.417 1.54682 1.69223 1.85508 2.03748 0.0234923 0.0239622 0.024442 0.024932 0.0254325 0.0259435 0.0264655 0.0269985 0.0275428 0.0280988 0.0286665 0.0292463 0.0298384 0.0304431 0.0310607 0.0316913 0.0323354 0.0329932 0.0336649 0.0343509 0.0350515 0.035767 0.0364977 0.0372439 0.038006 0.0387842 0.039579 0.0403907 0.0412197 0.0420662 0.0429307 0.0438006 0.0446757 0.0455563 0.0464422 0.0473335 0.0482303 0.0491326 0.0500405 0.0509538 0.0518728 0.0527974 0.0537277 0.0546637 0.0556054 0.0565528 0.0575061 0.0584652 0.0594302 0.0604011 0.0613779 0.0623608 0.0633496 0.0643445 0.0653455 0.0663526 0.0673659 0.0683854 0.0694112 0.0704432 0.0714816 0.0725263 0.0735774 0.0746349 0.075699 0.0767695 0.0778466 0.0789303 0.0800206 0.0811176 0.0822214 0.0833319 0.0844492 0.0855733 0.0867043 0.0878423 0.0889872 0.0901391 0.0912981 0.0924642 0.0936374 0.0948178 0.0960055 0.0972004 0.0984026 0.0996122 0.100829 0.102054 0.103286 0.104525 0.105772 0.107027 0.108289 0.10956 0.110838 0.112123 0.113417 0.114719 0.116028 0.117346 0.118671 0.120005 0.121347 0.122697 0.124055 0.125422 0.126797 0.128181 0.129573 0.130973 0.132382 0.1338 0.135227 0.136662 0.138106 0.139558 0.14102 0.142491 0.14397 0.145459 0.146957 0.148464 0.14998 0.151506 0.153041 0.154585 0.156138 0.157702 0.159275 0.160857 0.162449 0.164051 0.165663 0.167284 0.168916 0.170557 0.172209 0.17387 0.175542 0.177224 0.178917 0.18062 0.182333 0.184056 0.185791 0.187535 0.189291 0.191057 0.192834 0.194622 0.196421 0.198231 0.200052 0.201885 0.203728 0.205583 0.207449 0.209326 0.211215 0.213116 0.215028 0.216952 0.218888 0.220835 0.222795 0.224766 0.22675 0.228746 0.230754 0.232774 0.234807 0.236852 0.238909 0.240979 0.243062 0.245158 0.247266 0.249388 0.251522 0.25367 0.25583 0.258004 0.260191 0.262392 0.264606 0.266833 0.269075 0.27133 0.273598 0.275881 0.278178 0.280489 0.282813 0.285153 0.287506 0.289874 0.292256 0.294653 0.297065 0.299491 0.301932 0.304499 0.307197 0.310033 0.313014 0.316149 0.319444 0.322908 0.326549 0.330377 0.334401 0.338632 0.343079 0.347754 0.352669 0.357835 0.363267 0.368976 0.374979 0.381289 0.387922 0.395352 0.403672 0.412992 0.42343 0.43512 0.448213 0.462877 0.479302 0.497696 0.518299 0.541373 0.567217 0.596162 0.62858 0.664888 0.705553 0.751099 0.802109 0.859241 0.923229 0.994895 1.07516 1.16506 1.26575 1.37851 1.50481 1.64627 1.8047 1.98214 0.0226577 0.0231108 0.0235736 0.0240462 0.0245289 0.0250218 0.0255252 0.0260393 0.0265643 0.0271005 0.0276481 0.0282073 0.0287783 0.0293616 0.0299572 0.0305654 0.0311866 0.031821 0.0324689 0.0331305 0.0338062 0.0344963 0.035201 0.0359207 0.0366557 0.0374063 0.0381729 0.0389557 0.0397552 0.0405717 0.0414055 0.0422445 0.0430885 0.0439378 0.0447922 0.0456519 0.0465168 0.0473871 0.0482627 0.0491436 0.0500299 0.0509217 0.0518189 0.0527216 0.0536299 0.0545437 0.0554631 0.0563881 0.0573188 0.0582552 0.0591973 0.0601453 0.061099 0.0620585 0.063024 0.0639953 0.0649726 0.0659559 0.0669452 0.0679406 0.068942 0.0699496 0.0709634 0.0719833 0.0730096 0.0740421 0.0750809 0.0761261 0.0771777 0.0782357 0.0793003 0.0803713 0.0814489 0.0825331 0.0836239 0.0847215 0.0858257 0.0869367 0.0880545 0.0891792 0.0903107 0.0914492 0.0925947 0.0937471 0.0949067 0.0960733 0.0972471 0.098428 0.0996162 0.100812 0.102014 0.103225 0.104442 0.105667 0.1069 0.10814 0.109388 0.110643 0.111906 0.113177 0.114455 0.115742 0.117036 0.118338 0.119648 0.120966 0.122293 0.123627 0.124969 0.12632 0.127679 0.129047 0.130422 0.131806 0.133199 0.1346 0.13601 0.137428 0.138855 0.140291 0.141736 0.143189 0.144652 0.146123 0.147603 0.149093 0.150591 0.152099 0.153616 0.155142 0.156678 0.158223 0.159777 0.161341 0.162915 0.164498 0.166091 0.167693 0.169306 0.170928 0.17256 0.174203 0.175855 0.177517 0.17919 0.180873 0.182566 0.18427 0.185984 0.187708 0.189443 0.191189 0.192945 0.194712 0.19649 0.198279 0.200079 0.20189 0.203711 0.205544 0.207389 0.209244 0.211111 0.21299 0.21488 0.216781 0.218694 0.220619 0.222556 0.224504 0.226464 0.228437 0.230421 0.232418 0.234427 0.236448 0.238482 0.240528 0.242586 0.244657 0.246741 0.248838 0.250947 0.25307 0.255205 0.257354 0.259515 0.26169 0.263878 0.26608 0.268295 0.270523 0.272766 0.275022 0.277292 0.279575 0.281873 0.284185 0.286511 0.288851 0.291206 0.293681 0.296283 0.299018 0.301894 0.304917 0.308095 0.311436 0.314948 0.31864 0.322521 0.326601 0.33089 0.335399 0.340139 0.345122 0.350361 0.355868 0.361657 0.367743 0.37414 0.381306 0.389331 0.398319 0.408386 0.419661 0.432289 0.446433 0.462273 0.480015 0.499885 0.52214 0.547065 0.574982 0.606248 0.641266 0.680487 0.724414 0.773612 0.828714 0.890429 0.959549 1.03696 1.12367 1.22078 1.32954 1.45135 1.58778 1.74058 1.91172 0.0216506 0.0220836 0.0225259 0.0229775 0.0234387 0.0239097 0.0243907 0.0248819 0.0253836 0.025896 0.0264192 0.0269535 0.0274992 0.0280565 0.0286257 0.0292069 0.0298005 0.0304067 0.0310258 0.031658 0.0323037 0.0329631 0.0336365 0.0343242 0.0350265 0.0357437 0.0364762 0.0372243 0.0379882 0.0387684 0.0395652 0.0403668 0.0411734 0.0419849 0.0428014 0.0436228 0.0444493 0.0452809 0.0461175 0.0469593 0.0478063 0.0486584 0.0495157 0.0503783 0.0512462 0.0521194 0.0529979 0.0538818 0.0547712 0.055666 0.0565662 0.057472 0.0583833 0.0593002 0.0602228 0.0611509 0.0620848 0.0630244 0.0639697 0.0649208 0.0658778 0.0668406 0.0678093 0.0687839 0.0697645 0.0707512 0.0717438 0.0727426 0.0737474 0.0747584 0.0757756 0.0767991 0.0778288 0.0788648 0.0799071 0.0809559 0.082011 0.0830727 0.0841408 0.0852155 0.0862967 0.0873846 0.0884791 0.0895804 0.0906884 0.0918031 0.0929247 0.0940532 0.0951886 0.0963309 0.0974803 0.0986367 0.0998001 0.100971 0.102148 0.103333 0.104526 0.105725 0.106932 0.108146 0.109368 0.110597 0.111834 0.113078 0.11433 0.11559 0.116857 0.118132 0.119415 0.120706 0.122004 0.123311 0.124625 0.125948 0.127279 0.128618 0.129965 0.13132 0.132684 0.134056 0.135436 0.136825 0.138222 0.139628 0.141043 0.142466 0.143898 0.145339 0.146788 0.148247 0.149714 0.15119 0.152676 0.15417 0.155674 0.157186 0.158709 0.16024 0.161781 0.163331 0.164891 0.16646 0.168039 0.169627 0.171226 0.172834 0.174452 0.176079 0.177717 0.179365 0.181023 0.182691 0.184369 0.186058 0.187757 0.189466 0.191186 0.192916 0.194657 0.196409 0.198171 0.199944 0.201728 0.203523 0.205329 0.207146 0.208974 0.210813 0.212664 0.214526 0.216399 0.218284 0.22018 0.222088 0.224007 0.225939 0.227882 0.229837 0.231804 0.233783 0.235774 0.237778 0.239794 0.241822 0.243862 0.245915 0.247981 0.250059 0.25215 0.254253 0.25637 0.2585 0.260642 0.262798 0.264967 0.267149 0.269345 0.271554 0.273776 0.276013 0.278262 0.280628 0.283114 0.285728 0.288476 0.291364 0.294401 0.297593 0.300949 0.304477 0.308186 0.312084 0.316183 0.320492 0.325021 0.329783 0.334788 0.34005 0.345582 0.351398 0.357511 0.364358 0.372027 0.380615 0.390235 0.401009 0.413075 0.42659 0.441727 0.45868 0.477667 0.498932 0.52275 0.549426 0.579302 0.612764 0.650242 0.692216 0.739228 0.791881 0.850852 0.9169 0.990874 1.07372 1.16652 1.27044 1.38684 1.51721 1.66322 1.82675 0.0204788 0.0208884 0.0213067 0.0217338 0.0221701 0.0226156 0.0230706 0.0235352 0.0240097 0.0244944 0.0249893 0.0254947 0.0260108 0.026538 0.0270763 0.0276261 0.0281875 0.0287609 0.0293465 0.0299445 0.0305552 0.0311789 0.0318159 0.0324664 0.0331307 0.0338091 0.034502 0.0352095 0.0359321 0.0366701 0.0374237 0.038182 0.0389449 0.0397125 0.0404847 0.0412618 0.0420435 0.0428301 0.0436214 0.0444177 0.0452188 0.0460248 0.0468357 0.0476516 0.0484725 0.0492984 0.0501294 0.0509655 0.0518067 0.0526531 0.0535046 0.0543613 0.0552233 0.0560906 0.0569632 0.0578412 0.0587245 0.0596132 0.0605074 0.061407 0.0623122 0.0632229 0.0641391 0.065061 0.0659886 0.0669218 0.0678607 0.0688054 0.0697559 0.0707121 0.0716743 0.0726423 0.0736163 0.0745962 0.0755822 0.0765742 0.0775722 0.0785764 0.0795867 0.0806032 0.0816259 0.0826549 0.0836902 0.0847319 0.0857799 0.0868343 0.0878952 0.0889626 0.0900366 0.0911171 0.0922042 0.093298 0.0943985 0.0955057 0.0966197 0.0977405 0.0988682 0.100003 0.101144 0.102293 0.103449 0.104611 0.105781 0.106958 0.108142 0.109333 0.110532 0.111738 0.112952 0.114173 0.115401 0.116637 0.11788 0.119131 0.12039 0.121656 0.122931 0.124213 0.125502 0.1268 0.128106 0.129419 0.130741 0.132071 0.133409 0.134755 0.13611 0.137472 0.138843 0.140223 0.141611 0.143007 0.144412 0.145826 0.147248 0.148679 0.150118 0.151567 0.153024 0.154491 0.155966 0.15745 0.158944 0.160446 0.161958 0.163479 0.165009 0.166549 0.168098 0.169657 0.171225 0.172803 0.17439 0.175988 0.177594 0.179211 0.180838 0.182475 0.184121 0.185778 0.187445 0.189122 0.19081 0.192507 0.194216 0.195934 0.197663 0.199403 0.201153 0.202914 0.204686 0.206469 0.208263 0.210067 0.211883 0.21371 0.215548 0.217397 0.219258 0.22113 0.223013 0.224908 0.226815 0.228733 0.230663 0.232605 0.234559 0.236524 0.238502 0.240492 0.242494 0.244508 0.246535 0.248574 0.250626 0.25269 0.254767 0.256856 0.258958 0.261073 0.263202 0.265439 0.267791 0.270263 0.272862 0.275594 0.278467 0.281486 0.28466 0.287997 0.291505 0.295193 0.29907 0.303145 0.307429 0.311933 0.316668 0.321645 0.326878 0.332378 0.338161 0.344637 0.351891 0.360015 0.369114 0.379304 0.390718 0.403501 0.417818 0.433854 0.451813 0.471928 0.494456 0.519688 0.547948 0.579599 0.615047 0.65475 0.699217 0.749021 0.8048 0.867273 0.937243 1.01561 1.10338 1.20168 1.31178 1.43509 1.5732 1.72788 0.0191511 0.0195341 0.0199253 0.0203248 0.0207327 0.0211494 0.0215748 0.0220094 0.0224531 0.0229063 0.0233691 0.0238418 0.0243245 0.0248175 0.0253209 0.025835 0.0263601 0.0268963 0.0274439 0.0280031 0.0285743 0.0291575 0.0297532 0.0303615 0.0309827 0.0316172 0.0322651 0.0329268 0.0336026 0.0342927 0.0349975 0.0357066 0.03642 0.0371378 0.03786 0.0385867 0.0393177 0.0400533 0.0407934 0.041538 0.0422871 0.0430409 0.0437992 0.0445622 0.0453299 0.0461023 0.0468794 0.0476613 0.0484479 0.0492394 0.0500358 0.050837 0.0516431 0.0524541 0.0532702 0.0540912 0.0549172 0.0557483 0.0565845 0.0574258 0.0582723 0.059124 0.0599808 0.060843 0.0617104 0.0625831 0.0634611 0.0643446 0.0652334 0.0661277 0.0670275 0.0679328 0.0688436 0.06976 0.070682 0.0716097 0.072543 0.0734821 0.0744269 0.0753775 0.0763339 0.0772962 0.0782644 0.0792385 0.0802186 0.0812046 0.0821968 0.083195 0.0841993 0.0852097 0.0862264 0.0872492 0.0882784 0.0893138 0.0903556 0.0914038 0.0924584 0.0935194 0.094587 0.095661 0.0967417 0.097829 0.0989229 0.100024 0.101131 0.102245 0.103366 0.104494 0.105629 0.10677 0.107919 0.109075 0.110238 0.111408 0.112585 0.113769 0.114961 0.11616 0.117366 0.118579 0.1198 0.121029 0.122265 0.123509 0.12476 0.126019 0.127285 0.12856 0.129842 0.131132 0.13243 0.133736 0.135049 0.136371 0.137701 0.13904 0.140386 0.141741 0.143103 0.144475 0.145854 0.147242 0.148639 0.150044 0.151458 0.15288 0.154311 0.155751 0.1572 0.158658 0.160124 0.1616 0.163084 0.164578 0.166081 0.167593 0.169114 0.170644 0.172184 0.173734 0.175293 0.176861 0.178439 0.180027 0.181624 0.183231 0.184848 0.186475 0.188112 0.189759 0.191416 0.193083 0.194761 0.196448 0.198146 0.199855 0.201573 0.203303 0.205043 0.206793 0.208555 0.210327 0.21211 0.213904 0.215709 0.217525 0.219352 0.22119 0.223039 0.2249 0.226773 0.228656 0.230552 0.232458 0.234377 0.236307 0.238249 0.240203 0.242169 0.244147 0.246138 0.24823 0.250429 0.252741 0.255172 0.257727 0.260413 0.263237 0.266205 0.269326 0.272606 0.276055 0.27968 0.283492 0.287498 0.29171 0.296138 0.300792 0.305685 0.310829 0.316237 0.322294 0.329077 0.336674 0.345183 0.354713 0.365387 0.377341 0.39073 0.405726 0.422521 0.441332 0.462399 0.485995 0.512423 0.542022 0.575172 0.612301 0.653885 0.70046 0.752623 0.811046 0.876479 0.949765 1.03184 1.12377 1.22674 1.34205 1.47121 1.61586 0.0176777 0.0180312 0.0183923 0.018761 0.0191376 0.0195222 0.0199149 0.020316 0.0207256 0.021144 0.0215712 0.0220075 0.022453 0.0229081 0.0233728 0.0238473 0.024332 0.0248269 0.0253324 0.0258486 0.0263758 0.0269142 0.027464 0.0280256 0.028599 0.0291846 0.0297827 0.0303935 0.0310173 0.0316543 0.0323048 0.0329594 0.0336179 0.0342805 0.0349472 0.0356179 0.0362927 0.0369717 0.0376548 0.0383421 0.0390336 0.0397294 0.0404294 0.0411337 0.0418423 0.0425553 0.0432726 0.0439943 0.0447205 0.0454511 0.0461861 0.0469257 0.0476698 0.0484184 0.0491717 0.0499295 0.050692 0.0514592 0.052231 0.0530076 0.053789 0.0545751 0.0553661 0.0561618 0.0569625 0.0577681 0.0585786 0.059394 0.0602145 0.06104 0.0618705 0.0627062 0.0635469 0.0643928 0.0652439 0.0661002 0.0669617 0.0678285 0.0687007 0.0695781 0.070461 0.0713492 0.0722429 0.0731421 0.0740467 0.074957 0.0758727 0.0767941 0.0777212 0.0786539 0.0795923 0.0805365 0.0814865 0.0824422 0.0834039 0.0843714 0.0853448 0.0863242 0.0873097 0.0883011 0.0892986 0.0903022 0.091312 0.092328 0.0933502 0.0943786 0.0954134 0.0964544 0.0975019 0.0985558 0.0996161 0.100683 0.101756 0.102836 0.103923 0.105016 0.106116 0.107222 0.108336 0.109456 0.110583 0.111717 0.112858 0.114006 0.115161 0.116323 0.117492 0.118669 0.119852 0.121043 0.122241 0.123446 0.124659 0.125879 0.127107 0.128342 0.129585 0.130835 0.132093 0.133359 0.134633 0.135914 0.137203 0.1385 0.139805 0.141118 0.142439 0.143768 0.145105 0.146451 0.147805 0.149167 0.150537 0.151916 0.153303 0.154698 0.156103 0.157515 0.158937 0.160367 0.161806 0.163254 0.16471 0.166176 0.16765 0.169134 0.170626 0.172128 0.173639 0.175159 0.176689 0.178228 0.179776 0.181334 0.182901 0.184478 0.186065 0.187661 0.189267 0.190883 0.192509 0.194145 0.195791 0.197447 0.199113 0.200789 0.202475 0.204172 0.205879 0.207597 0.209325 0.211064 0.212813 0.214574 0.216345 0.218126 0.219919 0.221723 0.223537 0.225363 0.2272 0.229132 0.231162 0.233296 0.235539 0.237898 0.240377 0.242984 0.245724 0.248604 0.251633 0.254816 0.258162 0.26168 0.265379 0.269266 0.273354 0.27765 0.282167 0.286915 0.291906 0.297497 0.303758 0.310771 0.318625 0.327422 0.337275 0.348309 0.360668 0.37451 0.390013 0.407377 0.426824 0.448604 0.472998 0.50032 0.53092 0.565192 0.603577 0.646568 0.694718 0.748646 0.809045 0.876692 0.952457 1.03731 1.13235 1.2388 1.35801 1.49154 